     Program PHONON v.7.5 starts on 29Jun2026

     Dynamical matrices for (  0.000000000  0.144337567  0.000000000 )

     freq (    1) =     -20.671629 [cm-1]
     freq (    2) =      12.300000 [cm-1]
     freq (    3) =      45.600000 [cm-1]

     JOB DONE.
