BEGIN_INFO
  Fermi Energy: -1.0000
END_INFO
BEGIN_BLOCK_BANDGRID_3D
  band_energies
  BANDGRID_BANDS
  2
  3 3 1
  0.0 0.0 0.0
  1.0 0.0 0.0
  0.0 1.0 0.0
  0.0 0.0 1.0
  BAND: 1
  -2.0 -1.5 -0.5
  -1.4 -1.0 -0.2
  -0.4 -0.1 0.3
  BAND: 2
  1.0 1.2 1.4
  1.5 1.6 1.8
  2.0 2.2 2.4
END_BLOCK_BANDGRID_3D
