
     Program PHONON v.7.2 starts on 01Jan2025 at 12:00:00

     Representation #  1 mode #   1
     Representation #  2 mode #   2

     PHONON       :    100.00s CPU    120.00s WALL

     JOB DONE
